# Geometry File in Tecplot Format
Variables = "x", "y","Depth","Node Number"
ZONE N= 4388,E= 7750,F=FEPOINT,ET=TRIANGLE
   4158476.000    169247.000         6.536       1
   4158569.921    169215.549         8.122       2
   4158663.841    169184.099         6.955       3
   4158756.188    169148.423         9.180       4
   4158847.789    169110.748         9.989       5
   4158939.391    169073.073        18.407       6
   4159013.378    169007.467        15.809       7
   4159086.848    168941.041         4.543       8
   4159132.000    168853.000         1.307       9
   4158589.669    169108.053         2.921      10
   4158498.057    169149.539         8.077      11
   4158673.013    169071.413         9.786      12
   4158761.188    169066.256         9.026      13
   4158841.226    169019.711         9.433      14
   4158921.862    168967.232        20.927      15
   4158988.953    168896.142         9.140      16
   4159042.130    168807.681         0.572      17
   4158518.629    169051.967         8.202      18
   4158594.693    169001.376         4.422      19
   4158664.265    168958.181         9.100      20
   4158741.225    168985.538         9.050      21
   4158829.806    168930.017        13.440      22
   4158894.913    168862.597        13.819      23
   4158945.060    168787.247         0.838      24
   4158511.286    168952.312         5.690      25
   4158587.586    168897.171        10.231      26
   4158653.246    168854.265         9.151      27
   4158712.260    168904.459         9.660      28
   4158764.843    168898.191         9.891      29
   4158806.553    168833.453        19.610      30
   4158855.450    168759.376         1.232      31
   4158500.452    168853.356         0.653      32
   4158567.882    168796.267        10.504      33
   4158648.330    168759.350        13.238      34
   4158720.912    168829.811        12.382      35
   4158748.864    168750.896        16.576      36
   4158797.429    168677.133         0.465      37
   4158468.853    168758.558         0.683      38
   4158557.789    168689.429        12.750      39
   4158683.139    168672.188        13.517      40
   4158745.741    168591.116         0.379      41
   4158437.253    168663.760         0.713      42
   4158513.016    168592.094        15.918      43
   4158629.992    168590.055        11.704      44
   4158701.038    168500.939         0.941      45
   4158397.507    168572.163         0.790      46
   4158470.194    168501.065        18.414      47
   4158587.029    168499.462        11.212      48
   4158656.335    168410.761         1.692      49
   4158356.136    168481.204         0.876      50
   4158425.056    168411.796        13.365      51
   4158537.383    168414.300        14.642      52
   4158592.469    168333.435         1.693      53
   4158314.765    168390.245         1.630      54
   4158380.604    168321.116        12.213      55
   4158484.555    168328.804        14.954      56
   4158537.876    168251.003         0.785      57
   4158272.889    168299.521         6.028      58
   4158340.791    168228.688        11.397      59
   4158441.649    168237.452        13.975      60
   4158505.720    168155.628         6.162      61
   4158229.859    168209.335         8.580      62
   4158306.198    168136.012        11.516      63
   4158414.998    168140.857        11.967      64
   4158498.457    168058.257         5.445      65
   4158186.829    168119.149         8.602      66
   4158262.802    168049.721        11.328      67
   4158386.030    168046.850        11.577      68
   4158435.423    167944.844        16.903      69
   4158515.004    167958.977         2.239      70
   4158143.799    168028.962         8.264      71
   4158225.301    167958.070        12.732      72
   4158327.867    167968.203        10.727      73
   4158369.234    167886.134        13.842      74
   4158449.956    167833.353        10.860      75
   4158531.550    167859.697         4.628      76
   4158130.514    167930.392         4.443      77
   4158209.971    167856.232        11.428      78
   4158293.456    167871.647        12.236      79
   4158371.374    167792.748        13.770      80
   4158465.158    167732.095         7.922      81
   4158548.097    167760.417         6.876      82
   4158120.109    167831.009         1.427      83
   4158203.969    167756.518        11.032      84
   4158291.092    167767.325        10.458      85
   4158381.422    167694.208        13.652      86
   4158482.166    167633.154         9.057      87
   4158565.042    167661.211         7.343      88
   4158111.518    167731.570         1.859      89
   4158191.745    167667.375        10.451      90
   4158287.424    167657.837        10.813      91
   4158395.534    167594.570        14.783      92
   4158499.871    167534.783         8.460      93
   4158585.592    167562.682         8.990      94
   4158115.678    167631.731         2.567      95
   4158207.641    167574.879        12.258      96
   4158302.811    167549.522        11.202      97
   4158408.364    167486.016        16.407      98
   4158521.132    167438.883        10.300      99
   4158606.143    167464.152         9.347     100
   4158119.838    167531.892         3.276     101
   4158209.715    167465.792        11.734     102
   4158305.028    167456.060        12.266     103
   4158348.390    167377.175        13.594     104
   4158444.369    167381.578        16.837     105
   4158535.673    167348.638         6.453     106
   4158626.693    167365.623         9.837     107
   4158123.998    167432.053         3.984     108
   4158160.121    167340.769         5.401     109
   4158249.294    167364.175        13.268     110
   4158293.561    167274.451        14.514     111
   4158386.470    167285.150        13.984     112
   4158478.080    167284.116        18.742     113
   4158575.996    167264.308         6.817     114
   4158661.426    167272.155         5.612     115
   4158206.388    167252.200         7.276     116
   4158252.655    167163.631         9.150     117
   4158339.021    167184.496        14.489     118
   4158428.479    167193.142        14.366     119
   4158517.937    167190.494        17.112     120
   4158616.941    167172.583         6.319     121
   4158707.899    167182.877         0.540     122
   4158298.923    167075.062         7.374     123
   4158382.720    167093.268        13.846     124
   4158470.379    167100.682        14.766     125
   4158560.326    167098.417        14.032     126
   4158662.381    167082.607         7.094     127
   4158754.373    167093.599         1.319     128
   4158337.435    166982.866         5.658     129
   4158423.177    167000.814        14.616     130
   4158512.384    167008.565        14.301     131
   4158604.838    167007.923        12.156     132
   4158708.510    166992.482         7.248     133
   4158800.846    167004.321         5.630     134
   4158375.762    166890.583         3.947     135
   4158465.191    166909.561        14.096     136
   4158557.879    166918.946        13.517     137
   4158651.591    166918.759        11.528     138
   4158754.953    166901.455         8.598     139
   4158840.000    166912.000         5.555     140
   4158420.479    166801.970         2.057     141
   4158515.323    166823.574        13.870     142
   4158610.465    166833.092        13.611     143
   4158702.976    166832.032        12.571     144
   4158808.575    166801.017        10.182     145
   4158900.833    166829.333         6.371     146
   4158884.720    167009.518         5.630     147
   4158480.889    166722.373         3.174     148
   4158573.844    166741.603        13.442     149
   4158666.729    166749.212        13.413     150
   4158744.440    166748.748        13.217     151
   4158804.766    166679.538        12.341     152
   4158877.920    166714.055        10.203     153
   4158961.667    166746.667         6.952     154
   4159054.790    166917.473         3.455     155
   4158988.136    167054.162         4.295     156
   4158826.472    167150.644         5.509     157
   4158541.300    166642.776         2.946     158
   4158634.299    166660.476        13.960     159
   4158726.896    166664.242        13.560     160
   4158784.954    166580.552        13.018     161
   4158863.183    166594.796        13.124     162
   4158939.319    166629.296         9.843     163
   4159022.500    166664.000         8.016     164
   4159154.051    166802.949         1.342     165
   4158941.566    167199.561         5.977     166
   4158768.224    167291.771         5.673     167
   4158601.711    166563.179         2.683     168
   4158692.813    166577.480        11.669     169
   4158746.692    166491.458        12.936     170
   4158839.470    166493.472        13.268     171
   4158921.738    166509.108        10.943     172
   4159000.352    166544.752         8.981     173
   4159083.333    166581.333         8.305     174
   4159163.131    166655.392         7.934     175
   4159279.361    166734.626         5.360     176
   4158894.996    167344.959         6.260     177
   4158805.247    167394.548         0.777     178
   4158656.682    166480.064         3.065     179
   4158704.512    166392.329         4.024     180
   4158796.689    166403.316        12.864     181
   4158891.964    166405.054        12.962     182
   4158979.995    166420.969        10.812     183
   4159060.305    166460.066         8.964     184
   4159144.167    166498.667         8.078     185
   4159256.745    166559.638         7.905     186
   4159397.092    166582.848         7.987     187
   4159431.913    166728.524         4.001     188
   4158752.343    166304.595         5.333     189
   4158844.998    166314.441        10.879     190
   4158942.579    166315.077        11.866     191
   4159047.441    166327.448        10.105     192
   4159122.339    166387.791         8.544     193
   4159205.000    166416.000         7.247     194
   4159549.622    166589.501         5.467     195
   4159571.527    166708.603         0.822     196
   4158800.173    166216.860         6.643     197
   4158887.243    166221.586         9.806     198
   4158985.412    166222.452        11.034     199
   4159085.325    166212.503         9.713     200
   4159163.404    166292.516         8.189     201
   4159254.419    166329.834         5.099     202
   4158830.641    166122.230         5.108     203
   4158919.623    166125.852         8.415     204
   4159017.084    166118.790        10.398     205
   4159118.409    166087.777        10.215     206
   4159171.229    166171.841         8.805     207
   4159241.042    166206.618         8.095     208
   4159303.837    166243.669         3.382     209
   4158856.029    166025.584         5.152     210
   4158945.592    166028.448        10.034     211
   4159037.803    166012.933         9.870     212
   4159126.328    165973.520        10.635     213
   4159194.134    166009.408         8.694     214
   4159237.696    166081.162         8.521     215
   4159317.742    166129.964         6.986     216
   4159379.148    166185.905         1.345     217
   4158881.416    165928.937         4.779     218
   4158966.363    165929.743        10.044     219
   4159056.591    165909.135         9.995     220
   4159151.587    165868.601         9.997     221
   4159209.592    165926.721         8.558     222
   4159274.888    165960.945         8.278     223
   4159340.066    166016.448         8.157     224
   4159411.024    166078.237         3.583     225
   4159469.505    166144.646         1.428     226
   4158897.739    165831.308         4.242     227
   4158987.128    165840.268         9.847     228
   4159065.941    165807.079         8.947     229
   4159154.928    165765.614         9.589     230
   4159228.237    165811.778         8.275     231
   4159265.895    165864.808         8.837     232
   4159353.832    165892.108         8.356     233
   4159445.044    165958.437         4.777     234
   4159509.235    166052.011         1.969     235
   4159558.961    166122.362         1.043     236
   4158979.114    165748.812         9.051     237
   4158893.636    165731.467         1.271     238
   4159063.310    165706.882         8.090     239
   4159141.942    165663.551         9.990     240
   4159225.308    165696.228         8.574     241
   4159260.311    165752.140         8.782     242
   4159333.480    165781.810         8.830     243
   4159442.480    165818.483         7.816     244
   4159552.293    165891.657         2.170     245
   4159563.050    165977.710         1.443     246
   4159618.331    166053.699         0.851     247
   4159645.000    166172.000         0.790     248
   4158974.617    165654.014         9.319     249
   4158889.533    165631.626         1.498     250
   4159052.564    165607.396         9.578     251
   4159125.551    165566.281        10.041     252
   4159224.747    165609.332         8.264     253
   4159319.875    165671.478         9.571     254
   4159414.333    165694.776         7.935     255
   4159507.923    165708.674         7.487     256
   4159547.111    165799.105         3.459     257
   4159650.338    165841.965         4.937     258
   4159671.233    165942.930         2.889     259
   4159706.034    166052.672         1.018     260
   4159814.144    166102.350         3.076     261
   4159717.256    166248.649         0.935     262
   4159559.350    166268.767         0.795     263
   4159505.933    166168.916         0.827     264
   4158961.894    165562.704         9.295     265
   4158885.430    165531.784         4.101     266
   4159028.554    165504.273         9.512     267
   4159102.848    165478.264         9.585     268
   4159193.518    165502.229         8.846     269
   4159257.106    165544.960         8.201     270
   4159318.502    165571.685         9.395     271
   4159404.165    165591.550         8.990     272
   4159495.132    165606.271         8.332     273
   4159587.263    165641.407         5.939     274
   4159609.754    165740.835         5.838     275
   4159712.866    165783.531         4.077     276
   4159767.848    165867.125         1.630     277
   4159779.828    165964.905         3.743     278
   4159860.078    166237.478         0.788     279
   4159750.153    166372.402         0.856     280
   4159626.487    166361.345         0.902     281
   4159551.765    166445.795         4.058     282
   4159431.882    166363.440         3.060     283
   4159385.918    166249.357         1.069     284
   4158932.809    165489.493        10.483     285
   4158857.336    165451.747         3.034     286
   4158828.122    165530.425         1.830     287
   4158955.943    165422.191        10.915     288
   4159048.945    165391.367        10.330     289
   4159141.874    165414.665         9.974     290
   4159210.395    165399.293         8.777     291
   4159291.081    165468.444         8.570     292
   4159386.001    165487.864         8.908     293
   4159479.869    165504.334         9.602     294
   4159575.716    165540.563         6.367     295
   4159671.978    165594.252         3.187     296
   4159675.704    165694.237         2.700     297
   4159867.828    166382.346         0.489     298
   4159799.066    166497.207         0.238     299
   4159672.552    166526.795         1.434     300
   4158750.160    165474.913         3.060     301
   4158802.791    165393.807         2.714     302
   4158878.998    165360.386         9.292     303
   4158742.368    165581.721         2.725     304
   4158960.726    165325.799         9.895     305
   4159040.869    165280.744         8.538     306
   4159127.254    165322.531         9.666     307
   4159195.902    165286.108         9.168     308
   4159276.150    165362.315         8.286     309
   4159365.025    165388.762         8.985     310
   4159459.725    165404.335         9.334     311
   4159558.790    165440.929         7.112     312
   4159659.780    165495.073         3.536     313
   4158682.505    165548.452         4.215     314
   4158795.091    165296.954         3.208     315
   4158868.409    165262.942         8.705     316
   4158658.089    165621.090         4.435     317
   4158945.892    165226.619         9.273     318
   4159022.597    165183.200         9.455     319
   4159121.992    165214.799         9.865     320
   4159221.959    165175.625         8.774     321
   4159264.120    165264.492         8.938     322
   4159344.075    165288.263         9.029     323
   4159435.730    165305.488        10.212     324
   4159535.451    165342.712         8.143     325
   4159641.177    165396.911         3.562     326
   4158766.875    165201.095         4.116     327
   4158845.599    165166.534         8.951     328
   4158925.175    165129.098         9.751     329
   4159001.329    165081.305         8.492     330
   4159080.992    165122.939         9.012     331
   4159148.748    165120.287         9.138     332
   4159201.775    165067.315         8.588     333
   4159296.760    165091.107         8.020     334
   4159320.298    165187.220         8.134     335
   4159412.225    165206.230         9.179     336
   4159509.892    165244.837         9.215     337
   4159614.331    165300.524         3.504     338
   4158738.658    165105.236         5.607     339
   4158821.879    165070.393         9.412     340
   4158902.292    165031.571        11.419     341
   4158982.440    164985.783         8.326     342
   4159088.862    165029.689         8.720     343
   4159178.468    164978.929         8.483     344
   4159271.808    164993.061         7.756     345
   4159369.151    165008.727         9.201     346
   4159391.691    165106.745         9.127     347
   4159487.138    165146.231        10.577     348
   4159587.485    165204.138         3.533     349
   4158718.986    165007.275         5.783     350
   4158800.794    164972.747         9.556     351
   4158881.648    164934.046         9.527     352
   4158958.736    164886.210         8.351     353
   4159048.684    164925.199         8.732     354
   4159114.013    164958.180         8.860     355
   4159132.112    164882.332         9.007     356
   4159233.781    164899.170         8.015     357
   4159336.668    164913.998         9.922     358
   4159446.497    164938.708        10.174     359
   4159468.498    165045.261        11.208     360
   4159564.352    165107.087         3.700     361
   4158699.518    164909.264         5.523     362
   4158780.911    164874.787         9.162     363
   4158860.951    164835.300         9.367     364
   4158941.311    164785.763         8.303     365
   4159032.795    164829.256         9.251     366
   4159100.715    164792.182         9.601     367
   4159192.709    164807.469         9.458     368
   4159295.265    164822.062        10.574     369
   4159399.553    164838.823         9.801     370
   4159489.387    164819.773         2.663     371
   4159526.682    164912.586         3.758     372
   4159556.100    165007.373         4.435     373
   4158680.050    164811.254         4.721     374
   4158759.147    164776.815         9.140     375
   4158838.630    164737.680        10.316     376
   4158917.271    164689.261         8.297     377
   4159027.521    164721.397         9.450     378
   4159142.290    164716.471        10.575     379
   4159249.881    164731.140        10.620     380
   4159355.432    164746.860         9.625     381
   4159444.641    164730.281         2.540     382
   4158654.678    164714.603         4.094     383
   4158735.328    164679.433         9.661     384
   4158816.825    164639.080        11.405     385
   4158908.702    164578.876         8.624     386
   4158992.633    164632.294         9.219     387
   4159093.802    164631.932        10.595     388
   4159202.993    164642.095        11.133     389
   4159310.183    164656.610        10.169     390
   4159399.894    164640.789         1.465     391
   4158629.290    164617.957         3.467     392
   4158709.649    164583.435         9.104     393
   4158789.646    164544.650         9.649     394
   4158868.272    164483.281         8.653     395
   4158979.760    164473.484        10.525     396
   4159036.059    164549.327        10.099     397
   4159151.645    164554.850        11.561     398
   4159262.471    164568.418        10.214     399
   4159355.149    164551.297         0.576     400
   4158603.902    164521.310         4.470     401
   4158679.192    164488.924         8.763     402
   4158756.550    164449.734        10.163     403
   4158827.323    164391.030         8.911     404
   4158931.618    164386.237         9.811     405
   4159042.907    164385.920        11.565     406
   4159097.797    164469.556        11.335     407
   4159210.695    164482.548         9.487     408
   4159304.204    164465.350         2.406     409
   4158565.328    164430.109         5.064     410
   4158653.826    164403.440         8.480     411
   4158714.668    164355.191         8.526     412
   4158781.243    164302.204         9.022     413
   4158880.624    164299.292         9.669     414
   4158987.097    164300.783        11.591     415
   4159101.779    164313.973        10.484     416
   4159156.550    164397.894         8.879     417
   4159249.760    164381.404         4.651     418
   4158603.487    164324.797         8.372     419
   4158515.117    164343.715         4.199     420
   4158668.666    164256.556         8.518     421
   4158745.683    164217.768         9.345     422
   4158828.645    164214.256         9.867     423
   4158930.983    164206.429        11.125     424
   4159045.781    164232.241        10.368     425
   4159140.872    164213.512         6.421     426
   4159195.316    164297.458         6.896     427
   4158555.492    164239.236         8.247     428
   4158464.905    164257.322         2.976     429
   4158607.851    164162.663         8.605     430
   4158690.748    164147.320        10.108     431
   4158771.341    164129.241         9.613     432
   4158862.408    164118.958        10.201     433
   4158942.518    164083.805         8.877     434
   4159003.301    164150.378         9.550     435
   4159083.454    164131.580         5.954     436
   4158504.296    164152.707         8.379     437
   4158414.693    164170.928         2.964     438
   4158557.008    164074.538         8.335     439
   4158640.685    164063.068         9.317     440
   4158713.790    164047.452         9.423     441
   4158803.599    164035.571         9.092     442
   4158885.591    164002.096         9.060     443
   4158968.033    163968.110         6.534     444
   4159025.744    164049.845         6.244     445
   4158456.260    164064.448         8.460     446
   4158367.069    164083.137         3.490     447
   4158511.382    163982.955         8.297     448
   4158591.096    163986.943         8.760     449
   4158654.501    163962.773         8.638     450
   4158743.479    163954.490         8.619     451
   4158826.071    163921.418         8.989     452
   4158909.986    163886.627         6.900     453
   4158410.306    163975.014         8.460     454
   4158322.380    163993.761         3.991     455
   4158471.745    163894.366         8.814     456
   4158573.095    163890.774         8.471     457
   4158680.233    163874.175         8.606     458
   4158763.839    163841.004         9.384     459
   4158848.116    163807.994         7.579     460
   4158364.708    163887.139         7.938     461
   4158277.692    163904.385         3.660     462
   4158416.687    163816.424         8.265     463
   4158509.804    163784.815         8.343     464
   4158614.767    163809.437         8.490     465
   4158693.605    163758.351        11.011     466
   4158786.246    163729.361         6.099     467
   4158321.150    163794.634         8.469     468
   4158233.004    163815.009         3.328     469
   4158400.479    163712.689         8.493     470
   4158510.381    163656.962         9.567     471
   4158590.609    163728.417         9.745     472
   4158635.140    163659.962        11.028     473
   4158724.375    163650.728         6.470     474
   4158275.260    163708.432         8.831     475
   4158188.316    163725.632         4.694     476
   4158323.231    163641.091         8.903     477
   4158405.129    163588.531         9.436     478
   4158495.433    163551.920        10.041     479
   4158589.812    163574.831        10.785     480
   4158679.327    163561.930         0.985     481
   4158219.171    163607.865         9.537     482
   4158132.937    163642.555         2.556     483
   4158301.172    163560.176         9.628     484
   4158349.166    163480.498        10.282     485
   4158444.629    163473.022        11.300     486
   4158548.734    163479.179        10.622     487
   4158638.484    163470.591         1.014     488
   4158154.712    163520.424         9.465     489
   4158240.901    163488.905        10.276     490
   4158076.415    163560.152         2.174     491
   4158295.166    163394.105        10.135     492
   4158400.396    163382.411        11.140     493
   4158505.668    163389.886        10.482     494
   4158597.641    163379.251         1.440     495
   4158097.494    163437.477         9.194     496
   4158186.622    163405.798         8.918     497
   4158019.892    163477.748         1.829     498
   4158239.782    163307.957        10.464     499
   4158350.231    163296.293        11.189     500
   4158460.265    163300.894        10.456     501
   4158556.798    163287.912         0.784     502
   4158039.978    163355.586         8.644     503
   4158127.955    163327.077         9.626     504
   4157962.553    163395.916         1.477     505
   4158158.903    163241.857        10.129     506
   4158221.799    163209.987        10.817     507
   4158302.455    163209.098        11.678     508
   4158409.736    163215.296         9.513     509
   4158505.849    163202.042         0.606     510
   4157981.536    163274.153         8.841     511
   4158065.825    163245.901         9.362     512
   4157904.522    163314.568         1.120     513
   4158099.538    163159.001        10.008     514
   4158168.011    163136.296         9.987     515
   4158249.020    163107.463        11.215     516
   4158355.817    163131.780         8.232     517
   4158451.710    163117.899         0.606     518
   4157922.875    163192.991         6.530     519
   4158007.074    163164.045         9.451     520
   4157846.492    163233.219         0.763     521
   4158040.698    163077.117         9.939     522
   4158111.639    163054.467         9.481     523
   4158182.393    163020.093         9.988     524
   4158257.347    162979.734         9.712     525
   4158316.339    163048.211         8.684     526
   4158397.572    163033.756         0.741     527
   4157862.450    163113.187         9.100     528
   4157946.401    163083.678         9.338     529
   4157788.461    163151.870         0.654     530
   4157979.652    162997.298         9.131     531
   4158054.197    162972.363         9.652     532
   4158125.910    162935.639        10.591     533
   4158202.885    162896.707         9.387     534
   4158286.870    162867.060         0.903     535
   4158342.440    162950.264         0.904     536
   4157796.695    163035.877         8.888     537
   4157881.238    163005.629         9.018     538
   4157719.587    163079.903         0.682     539
   4157915.604    162921.386         9.373     540
   4157994.959    162891.509        10.095     541
   4158068.476    162853.038        10.689     542
   4158146.419    162814.041         8.607     543
   4158231.300    162783.855         0.903     544
   4157726.897    162965.494         6.333     545
   4157810.068    162920.087         8.741     546
   4157647.437    163010.768         0.665     547
   4157862.616    162844.555         9.593     548
   4157934.665    162812.082        10.430     549
   4158009.595    162771.894        10.519     550
   4158088.174    162732.590         8.640     551
   4158174.081    162701.819         0.902     552
   4157654.078    162897.030         7.172     553
   4157728.288    162848.311         8.430     554
   4157793.454    162789.316         9.477     555
   4157575.288    162941.634         0.648     556
   4157868.303    162736.285         9.482     557
   4157947.523    162693.486        10.199     558
   4158027.670    162652.344         8.754     559
   4158113.990    162621.818         0.597     560
   4157581.770    162827.642         7.271     561
   4157655.298    162777.610         8.395     562
   4157722.490    162719.695         9.237     563
   4157797.933    162666.961         9.997     564
   4157503.138    162872.500         0.632     565
   4157879.817    162620.708        10.140     566
   4157962.583    162577.268         8.665     567
   4158053.899    162541.817         0.313     568
   4157509.700    162760.072         6.173     569
   4157584.135    162707.930         8.833     570
   4157649.232    162649.881         9.247     571
   4157724.403    162599.326         9.751     572
   4157805.913    162553.484        10.302     573
   4157431.161    162803.189         0.625     574
   4157889.434    162509.863         9.494     575
   4157982.918    162472.386         0.439     576
   4157436.954    162688.873         6.220     577
   4157512.421    162653.996         8.982     578
   4157566.085    162578.755         9.116     579
   4157649.821    162531.626         9.440     580
   4157730.597    162486.999        10.038     581
   4157812.945    162444.938         9.663     582
   4157360.387    162732.647         0.630     583
   4157904.747    162409.934         3.072     584
   4157367.397    162617.076         6.820     585